# vtk DataFile Version 3.0
Output from R2
ASCII
DATASET UNSTRUCTURED_GRID
POINTS       2304 double
     0.00000     0.00000   0.
     0.50000     0.00000   0.
     1.00000     0.00000   0.
     1.50000     0.00000   0.
     2.00000     0.00000   0.
     2.50000     0.00000   0.
     3.00000     0.00000   0.
     3.50000     0.00000   0.
     4.00000     0.00000   0.
     4.50000     0.00000   0.
     5.00000     0.00000   0.
     5.50000     0.00000   0.
     6.00000     0.00000   0.
     6.50000     0.00000   0.
     7.00000     0.00000   0.
     7.50000     0.00000   0.
     8.00000     0.00000   0.
     8.50000     0.00000   0.
     9.00000     0.00000   0.
     9.50000     0.00000   0.
    10.00000     0.00000   0.
    10.50000     0.00000   0.
    11.00000     0.00000   0.
    11.50000     0.00000   0.
     2.21000    -3.83000   0.
     4.57000    -3.83000   0.
     6.93000    -3.83000   0.
     9.29000    -3.83000   0.
     0.10000     0.00000   0.
     0.20000     0.00000   0.
     0.30000     0.00000   0.
     0.40000     0.00000   0.
     0.60000     0.00000   0.
     0.70000     0.00000   0.
     0.80000     0.00000   0.
     0.90000     0.00000   0.
     1.10000     0.00000   0.
     1.20000     0.00000   0.
     1.30000     0.00000   0.
     1.40000     0.00000   0.
     1.60000     0.00000   0.
     1.70000     0.00000   0.
     1.80000     0.00000   0.
     1.90000     0.00000   0.
     2.10000     0.00000   0.
     2.20000     0.00000   0.
     2.30000     0.00000   0.
     2.40000     0.00000   0.
     2.60000     0.00000   0.
     2.70000     0.00000   0.
     2.80000     0.00000   0.
     2.90000     0.00000   0.
     3.10000     0.00000   0.
     3.20000     0.00000   0.
     3.30000     0.00000   0.
     3.40000     0.00000   0.
     3.60000     0.00000   0.
     3.70000     0.00000   0.
     3.80000     0.00000   0.
     3.90000     0.00000   0.
     4.10000     0.00000   0.
     4.20000     0.00000   0.
     4.30000     0.00000   0.
     4.40000     0.00000   0.
     4.60000     0.00000   0.
     4.70000     0.00000   0.
     4.80000     0.00000   0.
     4.90000     0.00000   0.
     5.10000     0.00000   0.
     5.20000     0.00000   0.
     5.30000     0.00000   0.
     5.40000     0.00000   0.
     5.60000     0.00000   0.
     5.70000     0.00000   0.
     5.80000     0.00000   0.
     5.90000     0.00000   0.
     6.10000     0.00000   0.
     6.20000     0.00000   0.
     6.30000     0.00000   0.
     6.40000     0.00000   0.
     6.60000     0.00000   0.
     6.70000     0.00000   0.
     6.80000     0.00000   0.
     6.90000     0.00000   0.
     7.10000     0.00000   0.
     7.20000     0.00000   0.
     7.30000     0.00000   0.
     7.40000     0.00000   0.
     7.60000     0.00000   0.
     7.70000     0.00000   0.
     7.80000     0.00000   0.
     7.90000     0.00000   0.
     8.10000     0.00000   0.
     8.20000     0.00000   0.
     8.30000     0.00000   0.
     8.40000     0.00000   0.
     8.60000     0.00000   0.
     8.70000     0.00000   0.
     8.80000     0.00000   0.
     8.90000     0.00000   0.
     9.10000     0.00000   0.
     9.20000     0.00000   0.
     9.30000     0.00000   0.
     9.40000     0.00000   0.
     9.60000     0.00000   0.
     9.70000     0.00000   0.
     9.80000     0.00000   0.
     9.90000     0.00000   0.
    10.10000     0.00000   0.
    10.20000     0.00000   0.
    10.30000     0.00000   0.
    10.40000     0.00000   0.
    10.60000     0.00000   0.
    10.70000     0.00000   0.
    10.80000     0.00000   0.
    10.90000     0.00000   0.
    11.10000     0.00000   0.
    11.20000     0.00000   0.
    11.30000     0.00000   0.
    11.40000     0.00000   0.
     0.09500    -3.83000   0.
     0.33000    -3.83000   0.
     0.56500    -3.83000   0.
     0.80000    -3.83000   0.
     1.03500    -3.83000   0.
     1.27000    -3.83000   0.
     1.50500    -3.83000   0.
     1.74000    -3.83000   0.
     1.97500    -3.83000   0.
     2.44600    -3.83000   0.
     2.68200    -3.83000   0.
     2.91800    -3.83000   0.
     3.15400    -3.83000   0.
     3.39000    -3.83000   0.
     3.62600    -3.83000   0.
     3.86200    -3.83000   0.
     4.09800    -3.83000   0.
     4.33400    -3.83000   0.
     4.80600    -3.83000   0.
     5.04200    -3.83000   0.
     5.27800    -3.83000   0.
     5.51400    -3.83000   0.
     5.75000    -3.83000   0.
     5.98600    -3.83000   0.
     6.22200    -3.83000   0.
     6.45800    -3.83000   0.
     6.69400    -3.83000   0.
     7.16600    -3.83000   0.
     7.40200    -3.83000   0.
     7.63800    -3.83000   0.
     7.87400    -3.83000   0.
     8.11000    -3.83000   0.
     8.34600    -3.83000   0.
     8.58200    -3.83000   0.
     8.81800    -3.83000   0.
     9.05400    -3.83000   0.
     9.52500    -3.83000   0.
     9.76000    -3.83000   0.
     9.99500    -3.83000   0.
    10.23000    -3.83000   0.
    10.46500    -3.83000   0.
    10.70000    -3.83000   0.
    10.93500    -3.83000   0.
    11.17000    -3.83000   0.
    11.40500    -3.83000   0.
    10.34660    -0.07924   0.
     9.85243    -0.08169   0.
    10.84697    -0.08687   0.
     9.34396    -0.09728   0.
     8.86168    -0.08613   0.
    11.34295    -0.09209   0.
     8.35000    -0.08660   0.
     7.85000    -0.08660   0.
     7.36087    -0.08581   0.
     6.85107    -0.09245   0.
     6.35000    -0.08660   0.
     5.85000    -0.08451   0.
     5.35000    -0.08481   0.
     4.85919    -0.08623   0.
     4.35000    -0.08660   0.
     3.85846    -0.08696   0.
     3.33714    -0.07450   0.
     2.85000    -0.08660   0.
     2.35000    -0.08608   0.
     1.84927    -0.08646   0.
     1.35000    -0.08660   0.
     0.85000    -0.08660   0.
     0.34953    -0.09134   0.
     2.09250    -3.62648   0.
    10.11250    -3.62648   0.
    11.06267    -3.60407   0.
     1.13995    -3.63707   0.
     0.22660    -3.64014   0.
     6.10225    -3.61303   0.
     9.16915    -3.62737   0.
     7.04446    -3.61690   0.
     5.15261    -3.62340   0.
     3.03348    -3.62882   0.
     7.99200    -3.62562   0.
     4.24429    -3.62649   0.
     0.05368    -0.08477   0.
     8.74812    -3.64720   0.
     7.50054    -3.61601   0.
     6.59067    -3.61902   0.
     5.63200    -3.62562   0.
     4.70049    -3.62585   0.
     3.48489    -3.63241   0.
     2.57776    -3.63537   0.
     9.63643    -3.62531   0.
    10.60035    -3.61936   0.
    11.52136    -3.60874   0.
     0.68385    -3.63560   0.
     1.62250    -3.62648   0.
    10.14952    -0.08176   0.
    10.55000    -0.08660   0.
     9.14441    -0.08361   0.
     9.65331    -0.09122   0.
    11.14810    -0.07937   0.
     0.55000    -0.08660   0.
     1.04538    -0.09326   0.
     1.55000    -0.08660   0.
     2.05107    -0.08406   0.
     2.55000    -0.08429   0.
     8.65419    -0.08137   0.
     8.14971    -0.09432   0.
     7.63860    -0.09538   0.
     7.14534    -0.08230   0.
     6.64108    -0.08665   0.
     6.14640    -0.07886   0.
     5.65000    -0.08534   0.
     5.14449    -0.08352   0.
     4.65457    -0.08801   0.
     3.06104    -0.08576   0.
     3.54656    -0.09319   0.
     4.14833    -0.09511   0.
    11.50334    -0.20663   0.
    11.44075    -0.31331   0.
    11.50233    -0.42010   0.
    11.37753    -0.42090   0.
    11.44096    -0.52972   0.
    11.31358    -0.53028   0.
    11.37811    -0.64157   0.
    11.24656    -0.64214   0.
    11.31435    -0.75651   0.
    11.17883    -0.75665   0.
    11.24623    -0.87266   0.
    11.11070    -0.87404   0.
    11.37480    -0.87857   0.
    11.17871    -0.99293   0.
    11.04096    -0.99465   0.
    11.11227    -1.11726   0.
    10.96880    -1.11844   0.
    11.04164    -1.24488   0.
    10.89095    -1.24443   0.
    10.96854    -1.37509   0.
    11.11928    -1.36700   0.
    10.81345    -1.37475   0.
    10.89344    -1.50948   0.
    10.73838    -1.50976   0.
    10.66114    -1.37385   0.
    10.58239    -1.50876   0.
    10.50473    -1.36741   0.
    10.42686    -1.50649   0.
    10.35024    -1.38197   0.
    10.27222    -1.50461   0.
    10.18327    -1.36170   0.
    10.11604    -1.49427   0.
    10.03140    -1.37266   0.
     9.96237    -1.49683   0.
     9.88640    -1.37944   0.
     9.80992    -1.51118   0.
     9.73189    -1.35871   0.
     9.65696    -1.50892   0.
     9.57589    -1.36337   0.
     9.50485    -1.50033   0.
     9.42655    -1.36724   0.
     9.35279    -1.49652   0.
     9.27375    -1.36700   0.
     9.20072    -1.48986   0.
     9.12443    -1.36527   0.
     9.04930    -1.49049   0.
     8.97478    -1.36439   0.
     8.89803    -1.49454   0.
     8.82388    -1.36403   0.
     8.74671    -1.49439   0.
     8.67193    -1.36656   0.
     8.59533    -1.48940   0.
     8.52052    -1.36356   0.
     8.44409    -1.48731   0.
     8.36936    -1.36483   0.
     8.29292    -1.49079   0.
     8.21897    -1.36090   0.
     8.14204    -1.49025   0.
     8.06815    -1.35949   0.
     7.99117    -1.48920   0.
     7.91866    -1.35643   0.
     7.84059    -1.48777   0.
     7.77248    -1.35253   0.
     7.69066    -1.48406   0.
     7.62068    -1.35255   0.
     7.53995    -1.48238   0.
     7.46617    -1.35413   0.
     7.38868    -1.48407   0.
     7.31484    -1.35400   0.
     7.23793    -1.48005   0.
     7.16503    -1.35137   0.
     7.08754    -1.47601   0.
     7.01472    -1.34959   0.
     6.93713    -1.47821   0.
     6.86284    -1.35021   0.
     6.78640    -1.47995   0.
     6.71283    -1.34996   0.
     6.63619    -1.47852   0.
     6.56261    -1.34901   0.
     6.48578    -1.47786   0.
     6.40911    -1.34795   0.
     6.33527    -1.47711   0.
     6.25718    -1.34730   0.
     6.18465    -1.47596   0.
     6.10982    -1.34604   0.
     6.03526    -1.47465   0.
     5.96153    -1.34499   0.
     5.88519    -1.48205   0.
     5.81177    -1.34537   0.
     5.73520    -1.48262   0.
     5.66203    -1.34498   0.
     5.58531    -1.47395   0.
     5.51212    -1.34279   0.
     5.43538    -1.47142   0.
     5.36132    -1.34115   0.
[...]
POINT_DATA      2304
CELL_DATA      4388
SCALARS Resistivity(ohm.m) double 1
LOOKUP_TABLE default
           100.00000           100.00000           100.00000           100.00000           100.00000           100.00000           100.00000           100.00000           100.00000           100.00000           100.00000           100.00000           100.00000           100.00000           100.00000           100.00000           100.00000           100.00000           100.00000           100.00000           100.00000           100.00000           100.00000            50.00000           100.00000            50.00000           100.00000           100.00000           100.00000           100.00000           100.00000           100.00000           100.00000           100.00000           100.00000           100.00000           100.00000           100.00000           100.00000           100.00000           100.00000           100.00000           100.00000           100.00000            50.00000           100.00000           100.00000           100.00000           100.00000           100.00000           100.00000           100.00000           100.00000           100.00000           100.00000           100.00000           100.00000           100.00000            50.00000           100.00000           100.00000           100.00000           100.00000           100.00000           100.00000           100.00000           100.00000            50.00000           100.00000           100.00000           100.00000           100.00000           100.00000           100.00000           100.00000           100.00000           100.00000           100.00000           100.00000           100.00000           100.00000           100.00000           100.00000           100.00000           100.00000           100.00000           100.00000            50.00000           100.00000           100.00000           100.00000            50.00000           100.00000           100.00000           100.00000           100.00000           100.00000           100.00000           100.00000           100.00000           100.00000           100.00000           100.00000           100.00000           100.00000           100.00000           100.00000           100.00000           100.00000           100.00000           100.00000           100.00000           100.00000           100.00000           100.00000           100.00000            50.00000           100.00000           100.00000           100.00000           100.00000           100.00000           100.00000           100.00000           100.00000           100.00000            50.00000           100.00000           100.00000            50.00000           100.00000           100.00000           100.00000            50.00000           100.00000           100.00000           100.00000           100.00000           100.00000           100.00000           100.00000           100.00000           100.00000            50.00000           100.00000           100.00000           100.00000           100.00000           100.00000           100.00000           100.00000           100.00000           100.00000           100.00000           100.00000           100.00000           100.00000           100.00000           100.00000           100.00000           100.00000           100.00000            50.00000            50.00000            50.00000           100.00000           100.00000           100.00000           100.00000           100.00000           100.00000           100.00000           100.00000           100.00000           100.00000           100.00000            50.00000            50.00000           100.00000           100.00000           100.00000           100.00000           100.00000            50.00000           100.00000           100.00000            50.00000           100.00000           100.00000           100.00000           100.00000           100.00000           100.00000           100.00000           100.00000           100.00000           100.00000           100.00000           100.00000           100.00000           100.00000           100.00000           100.00000           100.00000           100.00000           100.00000           100.00000           100.00000           100.00000           100.00000           100.00000           100.00000           100.00000           100.00000            50.00000           100.00000           100.00000           100.00000           100.00000           100.00000           100.00000           100.00000           100.00000           100.00000           100.00000           100.00000           100.00000           100.00000           100.00000           100.00000            50.00000           100.00000           100.00000           100.00000           100.00000           100.00000           100.00000           100.00000           100.00000           100.00000           100.00000           100.00000           100.00000           100.00000           100.00000           100.00000           100.00000           100.00000           100.00000           100.00000           100.00000           100.00000           100.00000           100.00000           100.00000           100.00000            50.00000           100.00000           100.00000           100.00000           100.00000           100.00000           100.00000           100.00000           100.00000           100.00000           100.00000            50.00000           100.00000           100.00000           100.00000           100.00000           100.00000           100.00000           100.00000           100.00000           100.00000            50.00000           100.00000            50.00000           100.00000           100.00000           100.00000           100.00000           100.00000           100.00000           100.00000           100.00000           100.00000           100.00000           100.00000           100.00000           100.00000           100.00000           100.00000           100.00000           100.00000           100.00000           100.00000            50.00000           100.00000           100.00000            50.00000           100.00000           100.00000           100.00000           100.00000           100.00000           100.00000           100.00000           100.00000           100.00000           100.00000           100.00000           100.00000           100.00000           100.00000           100.00000           100.00000           100.00000            50.00000           100.00000           100.00000           100.00000           100.00000           100.00000           100.00000           100.00000           100.00000           100.00000           100.00000           100.00000           100.00000           100.00000           100.00000           100.00000           100.00000           100.00000           100.00000           100.00000           100.00000           100.00000           100.00000           100.00000           100.00000           100.00000           100.00000           100.00000           100.00000           100.00000           100.00000           100.00000           100.00000           100.00000           100.00000           100.00000           100.00000           100.00000           100.00000           100.00000           100.00000           100.00000           100.00000           100.00000           100.00000           100.00000           100.00000           100.00000           100.00000           100.00000           100.00000           100.00000           100.00000           100.00000           100.00000           100.00000           100.00000           100.00000           100.00000           100.00000           100.00000           100.00000           100.00000           100.00000           100.00000           100.00000           100.00000           100.00000           100.00000           100.00000           100.00000           100.00000           100.00000           100.00000           100.00000           100.00000           100.00000           100.00000           100.00000           100.00000           100.00000           100.00000           100.00000           100.00000           100.00000           100.00000           100.00000           100.00000           100.00000           100.00000           100.00000           100.00000           100.00000           100.00000           100.00000           100.00000           100.00000            50.00000           100.00000           100.00000           100.00000           100.00000            50.00000           100.00000           100.00000           100.00000           100.00000           100.00000           100.00000           100.00000           100.00000           100.00000           100.00000           100.00000            50.00000           100.00000           100.00000           100.00000           100.00000           100.00000           100.00000           100.00000           100.00000           100.00000           100.00000           100.00000           100.00000           100.00000           100.00000           100.00000           100.00000           100.00000           100.00000           100.00000           100.00000           100.00000            50.00000           100.00000           100.00000           100.00000           100.00000           100.00000           100.00000           100.00000           100.00000           100.00000           100.00000           100.00000           100.00000           100.00000           100.00000           100.00000           100.00000           100.00000           100.00000           100.00000           100.00000           100.00000           100.00000           100.00000           100.00000           100.00000           100.00000           100.00000           100.00000           100.00000           100.00000           100.00000           100.00000           100.00000           100.00000            50.00000           100.00000           100.00000            50.00000           100.00000           100.00000           100.00000           100.00000           100.00000           100.00000           100.00000           100.00000           100.00000           100.00000           100.00000           100.00000           100.00000           100.00000           100.00000           100.00000           100.00000           100.00000           100.00000           100.00000           100.00000           100.00000           100.00000           100.00000           100.00000           100.00000           100.00000           100.00000           100.00000           100.00000           100.00000           100.00000           100.00000           100.00000           100.00000           100.00000           100.00000           100.00000           100.00000           100.00000           100.00000           100.00000           100.00000           100.00000            50.00000           100.00000           100.00000           100.00000           100.00000           100.00000           100.00000           100.00000           100.00000           100.00000           100.00000           100.00000           100.00000           100.00000           100.00000           100.00000           100.00000           100.00000           100.00000           100.00000           100.00000           100.00000           100.00000           100.00000           100.00000           100.00000           100.00000           100.00000           100.00000           100.00000           100.00000           100.00000           100.00000           100.00000           100.00000           100.00000           100.00000           100.00000           100.00000           100.00000           100.00000           100.00000           100.00000           100.00000           100.00000           100.00000           100.00000           100.00000           100.00000           100.00000           100.00000           100.00000           100.00000           100.00000           100.00000           100.00000           100.00000           100.00000           100.00000           100.00000           100.00000           100.00000           100.00000           100.00000           100.00000           100.00000           100.00000           100.00000           100.00000           100.00000           100.00000           100.00000           100.00000           100.00000           100.00000           100.00000           100.00000           100.00000           100.00000           100.00000           100.00000           100.00000           100.00000           100.00000           100.00000           100.00000           100.00000           100.00000           100.00000           100.00000           100.00000           100.00000           100.00000           100.00000           100.00000           100.00000           100.00000           100.00000           100.00000           100.00000           100.00000           100.00000           100.00000           100.00000           100.00000           100.00000           100.00000           100.00000            50.00000           100.00000           100.00000           100.00000           100.00000           100.00000           100.00000           100.00000           100.00000           100.00000           100.00000           100.00000           100.00000           100.00000           100.00000           100.00000           100.00000           100.00000           100.00000           100.00000           100.00000           100.00000           100.00000           100.00000           100.00000           100.00000            50.00000           100.00000           100.00000           100.00000           100.00000           100.00000           100.00000           100.00000           100.00000           100.00000           100.00000           100.00000           100.00000           100.00000           100.00000           100.00000           100.00000           100.00000           100.00000           100.00000           100.00000           100.00000           100.00000           100.00000           100.00000           100.00000           100.00000           100.00000           100.00000           100.00000           100.00000           100.00000           100.00000           100.00000           100.00000           100.00000           100.00000           100.00000           100.00000           100.00000           100.00000           100.00000           100.00000           100.00000           100.00000           100.00000           100.00000           100.00000           100.00000           100.00000           100.00000           100.00000           100.00000           100.00000           100.00000           100.00000           100.00000           100.00000           100.00000           100.00000            50.00000           100.00000           100.00000           100.00000           100.00000           100.00000           100.00000           100.00000           100.00000           100.00000           100.00000           100.00000           100.00000           100.00000           100.00000           100.00000           100.00000           100.00000           100.00000            50.00000           100.00000           100.00000           100.00000           100.00000           100.00000           100.00000           100.00000            50.00000           100.00000           100.00000           100.00000           100.00000           100.00000           100.00000           100.00000           100.00000           100.00000           100.00000           100.00000           100.00000           100.00000           100.00000           100.00000           100.00000           100.00000           100.00000            50.00000           100.00000           100.00000           100.00000           100.00000           100.00000           100.00000           100.00000           100.00000            50.00000           100.00000           100.00000           100.00000           100.00000           100.00000           100.00000           100.00000           100.00000            50.00000           100.00000           100.00000           100.00000           100.00000           100.00000           100.00000           100.00000           100.00000           100.00000           100.00000           100.00000           100.00000           100.00000           100.00000           100.00000           100.00000           100.00000           100.00000           100.00000           100.00000           100.00000           100.00000           100.00000           100.00000            50.00000           100.00000           100.00000           100.00000           100.00000           100.00000           100.00000           100.00000           100.00000           100.00000           100.00000           100.00000           100.00000           100.00000           100.00000           100.00000           100.00000           100.00000           100.00000           100.00000           100.00000            50.00000           100.00000           100.00000           100.00000           100.00000           100.00000           100.00000           100.00000           100.00000           100.00000           100.00000           100.00000           100.00000           100.00000           100.00000           100.00000           100.00000            50.00000            50.00000           100.00000           100.00000           100.00000           100.00000           100.00000           100.00000           100.00000           100.00000           100.00000           100.00000           100.00000           100.00000           100.00000           100.00000           100.00000           100.00000           100.00000           100.00000           100.00000           100.00000           100.00000           100.00000           100.00000           100.00000           100.00000           100.00000            50.00000            50.00000           100.00000           100.00000           100.00000            50.00000           100.00000           100.00000           100.00000           100.00000           100.00000           100.00000           100.00000           100.00000           100.00000           100.00000           100.00000           100.00000           100.00000            50.00000           100.00000           100.00000           100.00000           100.00000           100.00000           100.00000           100.00000           100.00000           100.00000           100.00000           100.00000           100.00000           100.00000           100.00000           100.00000           100.00000           100.00000           100.00000           100.00000           100.00000           100.00000           100.00000           100.00000           100.00000           100.00000           100.00000           100.00000           100.00000           100.00000           100.00000           100.00000           100.00000            50.00000           100.00000           100.00000           100.00000           100.00000           100.00000           100.00000           100.00000           100.00000           100.00000           100.00000           100.00000           100.00000           100.00000           100.00000           100.00000           100.00000           100.00000           100.00000           100.00000           100.00000           100.00000           100.00000           100.00000           100.00000           100.00000           100.00000           100.00000           100.00000           100.00000           100.00000           100.00000           100.00000           100.00000           100.00000           100.00000           100.00000           100.00000           100.00000           100.00000           100.00000           100.00000           100.00000           100.00000           100.00000           100.00000           100.00000           100.00000           100.00000           100.00000           100.00000            50.00000           100.00000           100.00000           100.00000  